
  ___ ___ ___ _ _ _  
 |   |   |_  | | | | 
 | | | | | . | | | | 
 |__ |  _|___|_____|  24.6.0
 |___|_|             

User:   dreece23@DESKTOP-TSBUOBR
Date:   Thu Jul 17 08:20:17 2025
Arch:   x86_64
Pid:    11677
CWD:    /home/dreece23/mld-smart-chemistry
Python: 3.10.18
gpaw:   /home/dreece23/miniconda3/envs/mld_modeling/lib/python3.10/site-packages/gpaw
_gpaw:  /home/dreece23/miniconda3/envs/mld_modeling/lib/python3.10/site-packages/
        _gpaw.cpython-310-x86_64-linux-gnu.so
ase:    /home/dreece23/miniconda3/envs/mld_modeling/lib/python3.10/site-packages/ase (version 3.25.0)
numpy:  /home/dreece23/miniconda3/envs/mld_modeling/lib/python3.10/site-packages/numpy (version 1.26.4)
scipy:  /home/dreece23/miniconda3/envs/mld_modeling/lib/python3.10/site-packages/scipy (version 1.15.3)
libxc:  6.2.2
units:  Angstrom and eV
cores: 1
OpenMP: True
OMP_NUM_THREADS: 6

Input parameters:
  convergence: {density: 0.0001,
                eigenstates: 0.0001,
                energy: 1e-05}
  kpts: [1 1 1]
  maxiter: 300
  mixer: {beta: 0.15}
  mode: {ecut: 300.0,
         name: pw}
  nbands: nao
  symmetry: off
  xc: PBE

System changes: positions, numbers, cell, pbc, initial_charges, initial_magmoms 

Initialize ...

species:
  Si:
    name: Silicon
    id: ee77bee481871cc2cb65ac61239ccafa
    Z: 14.0
    valence: 4
    core: 10
    charge: 0.0
    file: /home/dreece23/miniconda3/envs/mld_modeling/share/gpaw/Si.PBE.gz
    compensation charges: {type: gauss,
                           rc: 0.33,
                           lmax: 2}
    cutoffs: {filter: 1.86,
              core: 2.06}
    projectors:
      #              energy  rcut
      - 3s(2.00)   -10.812   1.058
      - 3p(2.00)    -4.081   1.058
      -  s          16.399   1.058
      -  p          23.130   1.058
      -  d           0.000   1.058
  
    # Using partial waves for Si as LCAO basis

Reference energy: -1009452.064029  # eV

Spin-paired calculation

Convergence criteria:
 Maximum [total energy] change in last 3 cyles: 1e-05 eV / valence electron
 Maximum integral of absolute [dens]ity change: 0.0001 electrons / valence electron
 Maximum integral of absolute [eigenst]ate change: 0.0001 eV^2 / valence electron
 Maximum number of scf [iter]ations: 300
 (Square brackets indicate name in SCF output, whereas a 'c' in
 the SCF output indicates the quantity has converged.)

Symmetries present (total): 1

  ( 1  0  0)
  ( 0  1  0)
  ( 0  0  1)

1 k-point (Gamma)
1 k-point in the irreducible part of the Brillouin zone
       k-points in crystal coordinates                weights
   0:     0.00000000    0.00000000    0.00000000          1/1

Wave functions: Plane wave expansion
  Cutoff energy: 300.000 eV
  Number of coefficients: 70235 (reduced to 35118)
  Pulay-stress correction: 0.000000 eV/Ang^3 (de/decut=0.000000)
  Using FFTW library
  ScaLapack parameters: grid=1x1, blocksize=None
  Wavefunction extrapolation:
    Improved wavefunction reuse through dual PAW basis 

Occupation numbers: Fermi-Dirac:
  width: 0.1000  # eV
 

Eigensolver
   Davidson(niter=2) 

Densities:
  Coarse grid: 45*45*210 grid
  Fine grid: 90*90*420 grid
  Total Charge: 0.000000 

Density mixing:
  Method: separate
  Backend: pulay
  Linear mixing parameter: 0.15
  old densities: 5
  Damping of long wavelength oscillations: 50 

Hamiltonian:
  XC and Coulomb potentials evaluated on a 90*90*420 grid
  Using the PBE Exchange-Correlation functional
  External potential:
    NoExternalPotential
 

XC parameters: PBE with 2 nearest neighbor stencil

Memory estimate:
  Process memory now: 299.80 MiB
  Calculator: 837.93 MiB
    Density: 190.91 MiB
      Arrays: 84.35 MiB
      Localized functions: 74.11 MiB
      Mixer: 32.44 MiB
    Hamiltonian: 56.67 MiB
      Arrays: 55.15 MiB
      XC: 0.00 MiB
      Poisson: 0.00 MiB
      vbar: 1.51 MiB
    Wavefunctions: 590.36 MiB
      Arrays psit_nG: 274.36 MiB
      Eigensolver: 297.05 MiB
      Projections: 6.50 MiB
      Projectors: 3.75 MiB
      PW-descriptor: 8.69 MiB

Total number of cores used: 1
OpenMP threads: 6

Number of atoms: 128
Number of atomic orbitals: 512
Number of bands in calculation: 512
Number of valence electrons: 512
Bands to converge: occupied

... initialized

Initializing position-dependent things.

Density initialized from atomic densities
Creating initial wave functions:
  512 bands from LCAO basis set

        .--------------------------.  
       /|                          |  
      / |                          |  
     /  |                          |  
    /   |                          |  
   /    |                          |  
  /     |                          |  
 *      |                          |  
 |      |                          |  
 |      |                          |  
 |      |                          |  
 |      |                          |  
 |      |                          |  
 |      |                          |  
 |      |                          |  
 |      |                          |  
 |      |                          |  
 |      |                          |  
 |      |                          |  
 |      | Si            Si         |  
 |      |                          |  
 |      |       Si           Si    |  
 |    Si|           Si             |  
 |     Si        Si  Si        Si  |  
 |      |SiSi         Si Si        |  
 | Si   |   Sii Si       SiSi      |  
 |      | Si  Si        Si Si      |  
 |   Si Si        Si Si            |  
 |   Si |       Si Si        Si    |  
 |    Si|Si      Si Si Si      Si  |  
 Si    Si  Si  Si    Si  Si        |  
 |      |Si Si        Si Si        |  
 | Si   |    Si Si         Si      |  
 |      | Si  Si        Si Si      |  
 |   Si Si      SiSi Si      Si    |  
 |   Sii|Si        Sii Si          |  
 |     Si        Si  Si        Si  |  
 Si     |  Si  Si        Si        |  
 |      |Si Si        Si Si        |  
 | Si   | Si Si Si      Si Si      |  
 |   Si |     Si  Si       Si      |  
 |   Si Si      Si SiSi      Si    |  
 |    Si|Si         Si Si          |  
 |     Si        Si  Si        Si  |  
 Si     |SiSi  Si     Si Si        |  
 | Si   |   Sii Si       SiSi      |  
 |      |     Si           Si      |  
 |   Si Si        Si Si            |  
 |   Si |          Si              |  
 |      |Si            Si          |  
 |      |                          |  
 Si     |      Si                  |  
 |      |                          |  
 |      |                          |  
 |      |                          |  
 |      |                          |  
 |      |                          |  
 |      |                          |  
 |      |                          |  
 |      |                          |  
 |      |                          |  
 |      |                          |  
 |      .--------------------------.  
 |     /                          /   
 |    /                          /    
 |   /                          /     
 |  /                          /      
 | /                          /       
 |/                          /        
 *--------------------------*         

Positions:
   0 Si     0.000000    0.000000   15.000000    ( 0.0000,  0.0000,  0.0000)
   1 Si     1.357500    1.357500   16.357500    ( 0.0000,  0.0000,  0.0000)
   2 Si     2.715000    2.715000   15.000000    ( 0.0000,  0.0000,  0.0000)
   3 Si     4.072500    4.072500   16.357500    ( 0.0000,  0.0000,  0.0000)
   4 Si     0.000000    2.715000   17.715000    ( 0.0000,  0.0000,  0.0000)
   5 Si     1.357500    4.072500   19.072500    ( 0.0000,  0.0000,  0.0000)
   6 Si     2.715000    0.000000   17.715000    ( 0.0000,  0.0000,  0.0000)
   7 Si     4.072500    1.357500   19.072500    ( 0.0000,  0.0000,  0.0000)
   8 Si     0.000000    0.000000   20.430000    ( 0.0000,  0.0000,  0.0000)
   9 Si     1.357500    1.357500   21.787500    ( 0.0000,  0.0000,  0.0000)
  10 Si     2.715000    2.715000   20.430000    ( 0.0000,  0.0000,  0.0000)
  11 Si     4.072500    4.072500   21.787500    ( 0.0000,  0.0000,  0.0000)
  12 Si     0.000000    2.715000   23.145000    ( 0.0000,  0.0000,  0.0000)
  13 Si     1.357500    4.072500   24.502500    ( 0.0000,  0.0000,  0.0000)
  14 Si     2.715000    0.000000   23.145000    ( 0.0000,  0.0000,  0.0000)
  15 Si     4.072500    1.357500   24.502500    ( 0.0000,  0.0000,  0.0000)
  16 Si     0.000000    0.000000   25.860000    ( 0.0000,  0.0000,  0.0000)
  17 Si     1.357500    1.357500   27.217500    ( 0.0000,  0.0000,  0.0000)
  18 Si     2.715000    2.715000   25.860000    ( 0.0000,  0.0000,  0.0000)
  19 Si     4.072500    4.072500   27.217500    ( 0.0000,  0.0000,  0.0000)
  20 Si     0.000000    2.715000   28.575000    ( 0.0000,  0.0000,  0.0000)
  21 Si     1.357500    4.072500   29.932500    ( 0.0000,  0.0000,  0.0000)
  22 Si     2.715000    0.000000   28.575000    ( 0.0000,  0.0000,  0.0000)
  23 Si     4.072500    1.357500   29.932500    ( 0.0000,  0.0000,  0.0000)
  24 Si     0.000000    0.000000   31.290000    ( 0.0000,  0.0000,  0.0000)
  25 Si     1.357500    1.357500   32.647500    ( 0.0000,  0.0000,  0.0000)
  26 Si     2.715000    2.715000   31.290000    ( 0.0000,  0.0000,  0.0000)
  27 Si     4.072500    4.072500   32.647500    ( 0.0000,  0.0000,  0.0000)
  28 Si     0.000000    2.715000   34.005000    ( 0.0000,  0.0000,  0.0000)
  29 Si     1.357500    4.072500   35.362500    ( 0.0000,  0.0000,  0.0000)
  30 Si     2.715000    0.000000   34.005000    ( 0.0000,  0.0000,  0.0000)
  31 Si     4.072500    1.357500   35.362500    ( 0.0000,  0.0000,  0.0000)
  32 Si     0.000000    5.430000   15.000000    ( 0.0000,  0.0000,  0.0000)
  33 Si     1.357500    6.787500   16.357500    ( 0.0000,  0.0000,  0.0000)
  34 Si     2.715000    8.145000   15.000000    ( 0.0000,  0.0000,  0.0000)
  35 Si     4.072500    9.502500   16.357500    ( 0.0000,  0.0000,  0.0000)
  36 Si     0.000000    8.145000   17.715000    ( 0.0000,  0.0000,  0.0000)
  37 Si     1.357500    9.502500   19.072500    ( 0.0000,  0.0000,  0.0000)
  38 Si     2.715000    5.430000   17.715000    ( 0.0000,  0.0000,  0.0000)
  39 Si     4.072500    6.787500   19.072500    ( 0.0000,  0.0000,  0.0000)
  40 Si     0.000000    5.430000   20.430000    ( 0.0000,  0.0000,  0.0000)
  41 Si     1.357500    6.787500   21.787500    ( 0.0000,  0.0000,  0.0000)
  42 Si     2.715000    8.145000   20.430000    ( 0.0000,  0.0000,  0.0000)
  43 Si     4.072500    9.502500   21.787500    ( 0.0000,  0.0000,  0.0000)
  44 Si     0.000000    8.145000   23.145000    ( 0.0000,  0.0000,  0.0000)
  45 Si     1.357500    9.502500   24.502500    ( 0.0000,  0.0000,  0.0000)
  46 Si     2.715000    5.430000   23.145000    ( 0.0000,  0.0000,  0.0000)
  47 Si     4.072500    6.787500   24.502500    ( 0.0000,  0.0000,  0.0000)
  48 Si     0.000000    5.430000   25.860000    ( 0.0000,  0.0000,  0.0000)
  49 Si     1.357500    6.787500   27.217500    ( 0.0000,  0.0000,  0.0000)
  50 Si     2.715000    8.145000   25.860000    ( 0.0000,  0.0000,  0.0000)
  51 Si     4.072500    9.502500   27.217500    ( 0.0000,  0.0000,  0.0000)
  52 Si     0.000000    8.145000   28.575000    ( 0.0000,  0.0000,  0.0000)
  53 Si     1.357500    9.502500   29.932500    ( 0.0000,  0.0000,  0.0000)
  54 Si     2.715000    5.430000   28.575000    ( 0.0000,  0.0000,  0.0000)
  55 Si     4.072500    6.787500   29.932500    ( 0.0000,  0.0000,  0.0000)
  56 Si     0.000000    5.430000   31.290000    ( 0.0000,  0.0000,  0.0000)
  57 Si     1.357500    6.787500   32.647500    ( 0.0000,  0.0000,  0.0000)
  58 Si     2.715000    8.145000   31.290000    ( 0.0000,  0.0000,  0.0000)
  59 Si     4.072500    9.502500   32.647500    ( 0.0000,  0.0000,  0.0000)
  60 Si     0.000000    8.145000   34.005000    ( 0.0000,  0.0000,  0.0000)
  61 Si     1.357500    9.502500   35.362500    ( 0.0000,  0.0000,  0.0000)
  62 Si     2.715000    5.430000   34.005000    ( 0.0000,  0.0000,  0.0000)
  63 Si     4.072500    6.787500   35.362500    ( 0.0000,  0.0000,  0.0000)
  64 Si     5.430000    0.000000   15.000000    ( 0.0000,  0.0000,  0.0000)
  65 Si     6.787500    1.357500   16.357500    ( 0.0000,  0.0000,  0.0000)
  66 Si     8.145000    2.715000   15.000000    ( 0.0000,  0.0000,  0.0000)
  67 Si     9.502500    4.072500   16.357500    ( 0.0000,  0.0000,  0.0000)
  68 Si     5.430000    2.715000   17.715000    ( 0.0000,  0.0000,  0.0000)
  69 Si     6.787500    4.072500   19.072500    ( 0.0000,  0.0000,  0.0000)
  70 Si     8.145000    0.000000   17.715000    ( 0.0000,  0.0000,  0.0000)
  71 Si     9.502500    1.357500   19.072500    ( 0.0000,  0.0000,  0.0000)
  72 Si     5.430000    0.000000   20.430000    ( 0.0000,  0.0000,  0.0000)
  73 Si     6.787500    1.357500   21.787500    ( 0.0000,  0.0000,  0.0000)
  74 Si     8.145000    2.715000   20.430000    ( 0.0000,  0.0000,  0.0000)
  75 Si     9.502500    4.072500   21.787500    ( 0.0000,  0.0000,  0.0000)
  76 Si     5.430000    2.715000   23.145000    ( 0.0000,  0.0000,  0.0000)
  77 Si     6.787500    4.072500   24.502500    ( 0.0000,  0.0000,  0.0000)
  78 Si     8.145000    0.000000   23.145000    ( 0.0000,  0.0000,  0.0000)
  79 Si     9.502500    1.357500   24.502500    ( 0.0000,  0.0000,  0.0000)
  80 Si     5.430000    0.000000   25.860000    ( 0.0000,  0.0000,  0.0000)
  81 Si     6.787500    1.357500   27.217500    ( 0.0000,  0.0000,  0.0000)
  82 Si     8.145000    2.715000   25.860000    ( 0.0000,  0.0000,  0.0000)
  83 Si     9.502500    4.072500   27.217500    ( 0.0000,  0.0000,  0.0000)
  84 Si     5.430000    2.715000   28.575000    ( 0.0000,  0.0000,  0.0000)
  85 Si     6.787500    4.072500   29.932500    ( 0.0000,  0.0000,  0.0000)
  86 Si     8.145000    0.000000   28.575000    ( 0.0000,  0.0000,  0.0000)
  87 Si     9.502500    1.357500   29.932500    ( 0.0000,  0.0000,  0.0000)
  88 Si     5.430000    0.000000   31.290000    ( 0.0000,  0.0000,  0.0000)
  89 Si     6.787500    1.357500   32.647500    ( 0.0000,  0.0000,  0.0000)
  90 Si     8.145000    2.715000   31.290000    ( 0.0000,  0.0000,  0.0000)
  91 Si     9.502500    4.072500   32.647500    ( 0.0000,  0.0000,  0.0000)
  92 Si     5.430000    2.715000   34.005000    ( 0.0000,  0.0000,  0.0000)
  93 Si     6.787500    4.072500   35.362500    ( 0.0000,  0.0000,  0.0000)
  94 Si     8.145000    0.000000   34.005000    ( 0.0000,  0.0000,  0.0000)
  95 Si     9.502500    1.357500   35.362500    ( 0.0000,  0.0000,  0.0000)
  96 Si     5.430000    5.430000   15.000000    ( 0.0000,  0.0000,  0.0000)
  97 Si     6.787500    6.787500   16.357500    ( 0.0000,  0.0000,  0.0000)
  98 Si     8.145000    8.145000   15.000000    ( 0.0000,  0.0000,  0.0000)
  99 Si     9.502500    9.502500   16.357500    ( 0.0000,  0.0000,  0.0000)
 100 Si     5.430000    8.145000   17.715000    ( 0.0000,  0.0000,  0.0000)
 101 Si     6.787500    9.502500   19.072500    ( 0.0000,  0.0000,  0.0000)
 102 Si     8.145000    5.430000   17.715000    ( 0.0000,  0.0000,  0.0000)
 103 Si     9.502500    6.787500   19.072500    ( 0.0000,  0.0000,  0.0000)
 104 Si     5.430000    5.430000   20.430000    ( 0.0000,  0.0000,  0.0000)
 105 Si     6.787500    6.787500   21.787500    ( 0.0000,  0.0000,  0.0000)
 106 Si     8.145000    8.145000   20.430000    ( 0.0000,  0.0000,  0.0000)
 107 Si     9.502500    9.502500   21.787500    ( 0.0000,  0.0000,  0.0000)
 108 Si     5.430000    8.145000   23.145000    ( 0.0000,  0.0000,  0.0000)
 109 Si     6.787500    9.502500   24.502500    ( 0.0000,  0.0000,  0.0000)
 110 Si     8.145000    5.430000   23.145000    ( 0.0000,  0.0000,  0.0000)
 111 Si     9.502500    6.787500   24.502500    ( 0.0000,  0.0000,  0.0000)
 112 Si     5.430000    5.430000   25.860000    ( 0.0000,  0.0000,  0.0000)
 113 Si     6.787500    6.787500   27.217500    ( 0.0000,  0.0000,  0.0000)
 114 Si     8.145000    8.145000   25.860000    ( 0.0000,  0.0000,  0.0000)
 115 Si     9.502500    9.502500   27.217500    ( 0.0000,  0.0000,  0.0000)
 116 Si     5.430000    8.145000   28.575000    ( 0.0000,  0.0000,  0.0000)
 117 Si     6.787500    9.502500   29.932500    ( 0.0000,  0.0000,  0.0000)
 118 Si     8.145000    5.430000   28.575000    ( 0.0000,  0.0000,  0.0000)
 119 Si     9.502500    6.787500   29.932500    ( 0.0000,  0.0000,  0.0000)
 120 Si     5.430000    5.430000   31.290000    ( 0.0000,  0.0000,  0.0000)
 121 Si     6.787500    6.787500   32.647500    ( 0.0000,  0.0000,  0.0000)
 122 Si     8.145000    8.145000   31.290000    ( 0.0000,  0.0000,  0.0000)
 123 Si     9.502500    9.502500   32.647500    ( 0.0000,  0.0000,  0.0000)
 124 Si     5.430000    8.145000   34.005000    ( 0.0000,  0.0000,  0.0000)
 125 Si     6.787500    9.502500   35.362500    ( 0.0000,  0.0000,  0.0000)
 126 Si     8.145000    5.430000   34.005000    ( 0.0000,  0.0000,  0.0000)
 127 Si     9.502500    6.787500   35.362500    ( 0.0000,  0.0000,  0.0000)

Unit cell:
           periodic     x           y           z      points  spacing
  1. axis:    yes   10.860000    0.000000    0.000000    45     0.2413
  2. axis:    yes    0.000000   10.860000    0.000000    45     0.2413
  3. axis:    no     0.000000    0.000000   50.362500   210     0.2398

  Lengths:  10.860000  10.860000  50.362500
  Angles:   90.000000  90.000000  90.000000

Effective grid spacing dv^(1/3) = 0.2408

     iter     time        total  log10-change:
                         energy   eigst   dens
iter:   1 08:21:21  -660.451065
iter:   2 08:22:00  -658.725942   -1.71  -0.82
