
  ___ ___ ___ _ _ _  
 |   |   |_  | | | | 
 | | | | | . | | | | 
 |__ |  _|___|_____|  25.1.0
 |___|_|             

User:   dreece23@Nugtop
Date:   Sun Jul 13 19:12:21 2025
Arch:   x86_64
Pid:    623752
CWD:    /home/dreece23/MLD_ASE_GPAW
Python: 3.10.18
gpaw:   /home/dreece23/miniconda3/envs/mld_modeling/lib/python3.10/site-packages/gpaw
_gpaw:  /home/dreece23/miniconda3/envs/mld_modeling/lib/python3.10/site-packages/
        _gpaw.cpython-310-x86_64-linux-gnu.so
ase:    /home/dreece23/miniconda3/envs/mld_modeling/lib/python3.10/site-packages/ase (version 3.25.0)
numpy:  /home/dreece23/miniconda3/envs/mld_modeling/lib/python3.10/site-packages/numpy (version 2.0.1)
scipy:  /home/dreece23/miniconda3/envs/mld_modeling/lib/python3.10/site-packages/scipy (version 1.15.3)
libxc:  5.2.3
units:  Angstrom and eV
cores: 1
OpenMP: False
OMP_NUM_THREADS: 1

Input parameters:
  mode: {ecut: 200.0,
         name: pw}
  xc: PBE

System changes: positions, numbers, cell, pbc, initial_charges, initial_magmoms 

Initialize ...

species:
  Al:
    name: Aluminium
    id: 0292cae29f5d6237e50f6abdd43a7bdd
    Z: 13.0
    valence: 3
    core: 10
    charge: 0.0
    file: /home/dreece23/.local/share/gpaw/gpaw-setups-24.11.0/Al.PBE.gz
    compensation charges: {type: gauss,
                           rc: 0.34,
                           lmax: 2}
    cutoffs: {filter: 1.91,
              core: 2.36}
    projectors:
      #              energy  rcut
      - 3s(2.00)    -7.753   1.085
      - 3p(1.00)    -2.712   1.085
      -  s          19.459   1.085
      -  p          24.499   1.085
      -  d           0.000   1.085
  
    # Using partial waves for Al as LCAO basis

  C:
    name: Carbon
    id: 4aa54d4b901d75f77cc0ea3eec22967b
    Z: 6.0
    valence: 4
    core: 2
    charge: 0.0
    file: /home/dreece23/.local/share/gpaw/gpaw-setups-24.11.0/C.PBE.gz
    compensation charges: {type: gauss,
                           rc: 0.20,
                           lmax: 2}
    cutoffs: {filter: 1.14,
              core: 1.14}
    projectors:
      #              energy  rcut
      - 2s(2.00)   -13.751   0.635
      - 2p(2.00)    -5.284   0.635
      -  s          13.461   0.635
      -  p          21.927   0.635
      -  d           0.000   0.635
  
    # Using partial waves for C as LCAO basis

  H:
    name: Hydrogen
    id: d65de229564ff8ea4db303e23b6d1ecf
    Z: 1.0
    valence: 1
    core: 0
    charge: 0.0
    file: /home/dreece23/.local/share/gpaw/gpaw-setups-24.11.0/H.PBE.gz
    compensation charges: {type: gauss,
                           rc: 0.15,
                           lmax: 2}
    cutoffs: {filter: 0.85,
              core: 0.53}
    projectors:
      #              energy  rcut
      - 1s(1.00)    -6.494   0.476
      -  s          20.717   0.476
      -  p           0.000   0.476
  
    # Using partial waves for H as LCAO basis

Reference energy: -9798.719071  # eV

Spin-paired calculation

Convergence criteria:
 Maximum [total energy] change in last 3 cyles: 0.0005 eV / valence electron
 Maximum integral of absolute [dens]ity change: 0.0001 electrons / valence electron
 Maximum integral of absolute [eigenst]ate change: 4e-08 eV^2 / valence electron
 Maximum number of scf [iter]ations: 333
 (Square brackets indicate name in SCF output, whereas a 'c' in
 the SCF output indicates the quantity has converged.)

Symmetries present (total): 2

  ( 1  0  0)  ( 1  0  0)
  ( 0  1  0)  ( 0 -1  0)
  ( 0  0  1)  ( 0  0  1)

1 k-point (Gamma)
1 k-point in the irreducible part of the Brillouin zone
       k-points in crystal coordinates                weights
   0:     0.00000000    0.00000000    0.00000000          1/1

Wave functions: Plane wave expansion
  Cutoff energy: 200.000 eV
  Number of coefficients: 20703 (reduced to 10352)
  Pulay-stress correction: 0.000000 eV/Ang^3 (de/decut=0.000000)
  Using Numpy's FFT
  ScaLapack parameters: grid=1x1, blocksize=None
  Wavefunction extrapolation:
    Improved wavefunction reuse through dual PAW basis 

Occupation numbers: # Zero width 

Eigensolver
   Davidson(niter=2) 

Densities:
  Coarse grid: 54*45*50 grid
  Fine grid: 108*90*100 grid
  Total Charge: 0.000000 

Density mixing:
  Method: separate
  Backend: pulay
  Linear mixing parameter: 0.05
  old densities: 5
  Damping of long wavelength oscillations: 50 

Hamiltonian:
  XC and Coulomb potentials evaluated on a 108*90*100 grid
  Using the PBE Exchange-Correlation functional
  External potential:
    NoExternalPotential
 

XC parameters: PBE with 2 nearest neighbor stencil

Memory estimate:
  Process memory now: 214.25 MiB
  Calculator: 94.30 MiB
    Density: 66.54 MiB
      Arrays: 24.10 MiB
      Localized functions: 33.17 MiB
      Mixer: 9.27 MiB
    Hamiltonian: 16.65 MiB
      Arrays: 15.76 MiB
      XC: 0.00 MiB
      Poisson: 0.00 MiB
      vbar: 0.90 MiB
    Wavefunctions: 11.10 MiB
      Arrays psit_nG: 3.00 MiB
      Eigensolver: 3.82 MiB
      Projections: 0.01 MiB
      Projectors: 1.74 MiB
      PW-descriptor: 2.53 MiB

Total number of cores used: 1

Number of atoms: 13
Number of atomic orbitals: 25
Number of bands in calculation: 19
Number of valence electrons: 24
Bands to converge: occupied

... initialized

Initializing position-dependent things.

Density initialized from atomic densities
Creating initial wave functions:
  19 bands from LCAO basis set

         .---------------------------------------.  
        /|                                       |  
       / |                                       |  
      /  |                                       |  
     /   |                                       |  
    /    |                                       |  
   /     |                                       |  
  /      |                                       |  
 *       |                                       |  
 |       |                                       |  
 |       |                                       |  
 |       |              H H                      |  
 |       |              HC                       |  
 |       |                                       |  
 |       |               Al                      |  
 |       |         HH H     HHH                  |  
 |       |          C        C                   |  
 |       |                                       |  
 |       |                                       |  
 |       .---------------------------------------.  
 |      /                                       /   
 |     /                                       /    
 |    /                                       /     
 |   /                                       /      
 |  /                                       /       
 | /                                       /        
 |/                                       /         
 *---------------------------------------*          

Positions:
   0 Al     8.005000    6.476314    7.000000    ( 0.0000,  0.0000,  0.0000)
   1 C      8.005000    6.476314    9.000000    ( 0.0000,  0.0000,  0.0000)
   2 H      8.555000    6.476314    9.330000    ( 0.0000,  0.0000,  0.0000)
   3 H      7.730000    6.952628    9.330000    ( 0.0000,  0.0000,  0.0000)
   4 H      7.730000    6.000000    9.330000    ( 0.0000,  0.0000,  0.0000)
   5 C      9.735000    6.476314    6.000000    ( 0.0000,  0.0000,  0.0000)
   6 H     10.285000    6.476314    6.330000    ( 0.0000,  0.0000,  0.0000)
   7 H      9.460000    6.952628    6.330000    ( 0.0000,  0.0000,  0.0000)
   8 H      9.460000    6.000000    6.330000    ( 0.0000,  0.0000,  0.0000)
   9 C      6.275000    6.476314    6.000000    ( 0.0000,  0.0000,  0.0000)
  10 H      6.825000    6.476314    6.330000    ( 0.0000,  0.0000,  0.0000)
  11 H      6.000000    6.952628    6.330000    ( 0.0000,  0.0000,  0.0000)
  12 H      6.000000    6.000000    6.330000    ( 0.0000,  0.0000,  0.0000)

Unit cell:
           periodic     x           y           z      points  spacing
  1. axis:    no    16.285000    0.000000    0.000000    54     0.3016
  2. axis:    no     0.000000   12.952628    0.000000    45     0.2878
  3. axis:    no     0.000000    0.000000   15.330000    50     0.3066

  Lengths:  16.285000  12.952628  15.330000
  Angles:   90.000000  90.000000  90.000000

Effective grid spacing dv^(1/3) = 0.2986

     iter     time        total  log10-change:
                         energy   eigst   dens
iter:   1 19:12:22    13.265599
iter:   2 19:12:23    19.494250   -1.07  -0.28
iter:   3 19:12:24    42.678988   +0.27  -0.31
iter:   4 19:12:25    50.460900   -0.62  -0.49
iter:   5 19:12:26    44.642943   -0.45  -0.92
iter:   6 19:12:26    50.936125   -0.80  -0.62
iter:   7 19:12:27    50.955970   -1.88  -1.14
iter:   8 19:12:28    50.996032   -2.94  -1.24
iter:   9 19:12:29    51.267096   -1.71  -1.30
iter:  10 19:12:29    51.267777   -3.50  -1.61
iter:  11 19:12:30    51.185105   -2.29  -1.64
iter:  12 19:12:31    51.275336   -2.29  -1.59
iter:  13 19:12:32    51.274923   -3.88  -2.41
iter:  14 19:12:33    51.273211c  -3.94  -2.42
iter:  15 19:12:34    51.274294c  -4.08  -2.47
iter:  16 19:12:32    51.274285c  -4.69  -2.73
iter:  17 19:12:33    51.274349c  -5.95  -2.72
iter:  18 19:12:33    51.274334c  -5.43  -2.76
iter:  19 19:12:34    51.274324c  -6.03  -2.84
iter:  20 19:12:35    51.274336c  -6.17  -2.89
iter:  21 19:12:36    51.274352c  -6.47  -2.94
iter:  22 19:12:36    51.274267c  -5.87  -2.98
iter:  23 19:12:37    51.274252c  -6.68  -3.16
iter:  24 19:12:38    51.274249c  -6.72  -3.25
iter:  25 19:12:39    51.274250c  -6.09  -3.34
iter:  26 19:12:39    51.274246c  -6.67  -3.46
iter:  27 19:12:40    51.274246c  -7.18  -3.55
iter:  28 19:12:42    51.274247c  -6.20  -3.57
iter:  29 19:12:42    51.274249c  -6.86  -3.91
iter:  30 19:12:43    51.274249c  -8.33c -4.31c

Converged after 30 iterations.

Dipole moment: (0.004852, -0.000000, 1.362776) |e|*Ang

Energy contributions relative to reference atoms: (reference = -9798.719071)

Kinetic:       +312.015179
Potential:     -155.529770
External:        +0.000000
XC:            -106.679259
Entropy (-ST):   +0.000000
Local:           +1.468099
SIC:             +0.000000
--------------------------
Free energy:    +51.274249
Extrapolated:   +51.274249

 Band  Eigenvalues  Occupancy
    0    -24.35958    2.00000
    1    -24.10478    2.00000
    2    -23.63045    2.00000
    3    -13.51260    2.00000
    4    -12.32316    2.00000
    5    -12.27335    2.00000
    6    -12.13350    2.00000
    7    -12.04028    2.00000
    8    -11.30572    2.00000
    9    -10.07104    2.00000
   10     -5.24608    2.00000
   11     -4.79958    2.00000
   12     -2.64752    0.00000
   13     -2.56630    0.00000
   14     -0.55998    0.00000
   15     -0.47456    0.00000
   16      0.11163    0.00000
   17      0.33885    0.00000
   18      0.39633    0.00000

Fermi level: -3.72355

Gap: 2.152 eV
Transition (v -> c):
  (s=0, k=0, n=11, [0.00, 0.00, 0.00]) -> (s=0, k=0, n=12, [0.00, 0.00, 0.00])
No difference between direct/indirect transitions

Forces in eV/Ang:
  0 Al    2.99215    0.00000    0.76076
  1 C     0.42761    0.00000 -106.87761
  2 H    65.44235    0.00000   34.99696
  3 H   -32.78150   56.59544   35.10013
  4 H   -32.78150  -56.59544   35.10013
  5 C    -4.55067    0.00000 -105.28083
  6 H    65.17283    0.00000   35.47124
  7 H   -30.30746   58.45602   35.63857
  8 H   -30.30746  -58.45602   35.63857
  9 C     3.55859    0.00000 -104.78149
 10 H    60.11763    0.00000   34.01953
 11 H   -33.24078   56.90407   35.21429
 12 H   -33.24078  -56.90407   35.21429

System changes: positions 

Initializing position-dependent things.

Density initialized from wave functions
         .---------------------------------------.  
        /|                                       |  
       / |                                       |  
      /  |                                       |  
     /   |                                       |  
    /    |                                       |  
   /     |                                       |  
  /      |                                       |  
 *       |                                       |  
 |       |                                       |  
 |       |                                       |  
 |       |              H H                      |  
 |       |             H C                       |  
 |       |                                       |  
 |       |               Al                      |  
 |       |         HH H     H  H                 |  
 |       |          C        C                   |  
 |       |                                       |  
 |       |                                       |  
 |       .---------------------------------------.  
 |      /                                       /   
 |     /                                       /    
 |    /                                       /     
 |   /                                       /      
 |  /                                       /       
 | /                                       /        
 |/                                       /         
 *---------------------------------------*          

Positions:
   0 Al     8.010599    6.476314    7.001424    ( 0.0000,  0.0000,  0.0000)
   1 C      8.005800    6.476314    8.800002    ( 0.0000,  0.0000,  0.0000)
   2 H      8.677461    6.476314    9.395489    ( 0.0000,  0.0000,  0.0000)
   3 H      7.668656    7.058534    9.395682    ( 0.0000,  0.0000,  0.0000)
   4 H      7.668656    5.894094    9.395682    ( 0.0000,  0.0000,  0.0000)
   5 C      9.726484    6.476314    5.802990    ( 0.0000,  0.0000,  0.0000)
   6 H     10.406957    6.476314    6.396377    ( 0.0000,  0.0000,  0.0000)
   7 H      9.403286    7.062016    6.396690    ( 0.0000,  0.0000,  0.0000)
   8 H      9.403286    5.890612    6.396690    ( 0.0000,  0.0000,  0.0000)
   9 C      6.281659    6.476314    5.803924    ( 0.0000,  0.0000,  0.0000)
  10 H      6.937497    6.476314    6.393660    ( 0.0000,  0.0000,  0.0000)
  11 H      5.937797    7.059112    6.395896    ( 0.0000,  0.0000,  0.0000)
  12 H      5.937797    5.893516    6.395896    ( 0.0000,  0.0000,  0.0000)

Unit cell:
           periodic     x           y           z      points  spacing
  1. axis:    no    16.285000    0.000000    0.000000    54     0.3016
  2. axis:    no     0.000000   12.952628    0.000000    45     0.2878
  3. axis:    no     0.000000    0.000000   15.330000    50     0.3066

  Lengths:  16.285000  12.952628  15.330000
  Angles:   90.000000  90.000000  90.000000

Effective grid spacing dv^(1/3) = 0.2986

     iter     time        total  log10-change:
                         energy   eigst   dens
iter:   1 19:12:45   -30.786680   +0.34
iter:   2 19:12:45   -30.365948   -1.27  -0.83
iter:   3 19:12:46   -27.904984   -0.45  -0.84
iter:   4 19:12:47   -27.991984   -1.79  -1.36
iter:   5 19:12:47   -27.843504   -2.03  -1.30
iter:   6 19:12:48   -27.858836   -2.29  -1.60
iter:   7 19:12:49   -27.870566   -2.46  -1.81
iter:   8 19:12:50   -27.866719c  -3.08  -2.06
iter:   9 19:12:50   -27.866470c  -4.45  -2.46
iter:  10 19:12:51   -27.867212c  -3.66  -2.50
iter:  11 19:12:52   -27.868084c  -3.32  -2.46
iter:  12 19:12:53   -27.866534c  -4.08  -2.45
iter:  13 19:12:54   -27.866497c  -4.84  -3.04
iter:  14 19:12:54   -27.866502c  -5.97  -3.22
iter:  15 19:12:55   -27.866487c  -6.82  -3.24
iter:  16 19:12:56   -27.866479c  -6.69  -3.28
iter:  17 19:12:56   -27.866493c  -6.34  -3.31
iter:  18 19:12:57   -27.866491c  -5.63  -3.31
iter:  19 19:12:58   -27.866493c  -6.46  -3.41
iter:  20 19:12:58   -27.866499c  -6.91  -3.48
iter:  21 19:12:59   -27.866500c  -6.79  -3.56
iter:  22 19:13:00   -27.866502c  -7.27  -3.62
iter:  23 19:13:01   -27.866510c  -5.98  -3.68
iter:  24 19:13:01   -27.866504c  -6.25  -3.60
iter:  25 19:13:02   -27.866504c  -7.89c -4.34c

Converged after 25 iterations.

Dipole moment: (0.048672, -0.000000, 1.373556) |e|*Ang

Energy contributions relative to reference atoms: (reference = -9798.719071)

Kinetic:       +127.445513
Potential:      -81.512964
External:        +0.000000
XC:             -74.347616
Entropy (-ST):   +0.000000
Local:           +0.548563
SIC:             +0.000000
--------------------------
Free energy:    -27.866504
Extrapolated:   -27.866504

 Band  Eigenvalues  Occupancy
    0    -22.43100    2.00000
    1    -22.10071    2.00000
    2    -21.53456    2.00000
    3    -12.13404    2.00000
    4    -10.56256    2.00000
    5    -10.46340    2.00000
    6    -10.15499    2.00000
    7     -9.98677    2.00000
    8     -9.93327    2.00000
    9     -9.13740    2.00000
   10     -5.79162    2.00000
   11     -5.40298    2.00000
   12     -2.03251    0.00000
   13     -1.96047    0.00000
   14     -0.50878    0.00000
   15     -0.42215    0.00000
   16      0.04759    0.00000
   17      0.36386    0.00000
   18      0.41531    0.00000

Fermi level: -3.71775

Gap: 3.370 eV
Transition (v -> c):
  (s=0, k=0, n=11, [0.00, 0.00, 0.00]) -> (s=0, k=0, n=12, [0.00, 0.00, 0.00])
No difference between direct/indirect transitions

Forces in eV/Ang:
  0 Al    6.67490    0.00000    1.03757
  1 C     0.11320    0.00000  -15.38378
  2 H    12.29656    0.00000    5.80206
  3 H    -6.17647   10.48828    5.81234
  4 H    -6.17647  -10.48828    5.81234
  5 C    -1.41794    0.00000  -20.83777
  6 H    11.45830    0.00000    6.48293
  7 H    -4.38650   13.13115    7.40976
  8 H    -4.38650  -13.13115    7.40976
  9 C    -0.07200    0.00000  -21.02470
 10 H     5.05486    0.00000    4.27000
 11 H    -6.44869   10.73665    6.58118
 12 H    -6.44869  -10.73665    6.58118

System changes: positions 

Initializing position-dependent things.

Density initialized from wave functions
         .---------------------------------------.  
        /|                                       |  
       / |                                       |  
      /  |                                       |  
     /   |                                       |  
    /    |                                       |  
   /     |                                       |  
  /      |                                       |  
 *       |                                       |  
 |       |                                       |  
 |       |                                       |  
 |       |              H H                      |  
 |       |             H C                       |  
 |       |                                       |  
 |       |               Al                      |  
 |       |         HH H     HH H                 |  
 |       |          C        C                   |  
 |       |                                       |  
 |       |                                       |  
 |       .---------------------------------------.  
 |      /                                       /   
 |     /                                       /    
 |    /                                       /     
 |   /                                       /      
 |  /                                       /       
 | /                                       /        
 |/                                       /         
 *---------------------------------------*          

Positions:
   0 Al     8.118884    6.476314    7.017456    ( 0.0000,  0.0000,  0.0000)
   1 C      8.006616    6.476314    8.821101    ( 0.0000,  0.0000,  0.0000)
   2 H      8.714704    6.476314    9.401913    ( 0.0000,  0.0000,  0.0000)
   3 H      7.649707    7.088198    9.402006    ( 0.0000,  0.0000,  0.0000)
   4 H      7.649707    5.864430    9.402006    ( 0.0000,  0.0000,  0.0000)
   5 C      9.714080    6.476314    5.724669    ( 0.0000,  0.0000,  0.0000)
   6 H     10.430313    6.476314    6.413388    ( 0.0000,  0.0000,  0.0000)
   7 H      9.408849    7.132724    6.429409    ( 0.0000,  0.0000,  0.0000)
   8 H      9.408849    5.819904    6.429409    ( 0.0000,  0.0000,  0.0000)
   9 C      6.270770    6.476314    5.720992    ( 0.0000,  0.0000,  0.0000)
  10 H      6.862887    6.476314    6.376017    ( 0.0000,  0.0000,  0.0000)
  11 H      5.915344    7.092270    6.415316    ( 0.0000,  0.0000,  0.0000)
  12 H      5.915344    5.860358    6.415316    ( 0.0000,  0.0000,  0.0000)

Unit cell:
           periodic     x           y           z      points  spacing
  1. axis:    no    16.285000    0.000000    0.000000    54     0.3016
  2. axis:    no     0.000000   12.952628    0.000000    45     0.2878
  3. axis:    no     0.000000    0.000000   15.330000    50     0.3066

  Lengths:  16.285000  12.952628  15.330000
  Angles:   90.000000  90.000000  90.000000

Effective grid spacing dv^(1/3) = 0.2986

     iter     time        total  log10-change:
                         energy   eigst   dens
iter:   1 19:13:04   -34.384692   -0.76
iter:   2 19:13:01   -34.304843   -2.30  -1.28
iter:   3 19:13:02   -33.936866   -1.60  -1.31
iter:   4 19:13:03   -33.936732   -3.58  -1.71
iter:   5 19:13:04   -33.948763   -2.63  -1.73
iter:   6 19:13:05   -33.919114   -2.90  -1.84
iter:   7 19:13:06   -33.919104   -3.37  -2.28
iter:   8 19:13:07   -33.918902c  -4.44  -2.36
iter:   9 19:13:08   -33.918573c  -4.60  -2.57
iter:  10 19:13:08   -33.918546c  -4.84  -3.00
iter:  11 19:13:09   -33.918538c  -6.73  -3.28
iter:  12 19:13:10   -33.918543c  -5.18  -3.32
iter:  13 19:13:10   -33.918526c  -5.54  -3.32
iter:  14 19:13:11   -33.918525c  -7.02  -3.79
iter:  15 19:13:12   -33.918525c  -8.06c -3.91
iter:  16 19:13:13   -33.918526c  -6.75  -3.98
iter:  17 19:13:13   -33.918524c  -6.84  -4.06c
iter:  18 19:13:14   -33.918525c  -7.55c -4.25c

Converged after 18 iterations.

Dipole moment: (0.360661, -0.000000, 1.304653) |e|*Ang

Energy contributions relative to reference atoms: (reference = -9798.719071)

Kinetic:        +96.981478
Potential:      -64.029260
External:        +0.000000
XC:             -67.360585
Entropy (-ST):   +0.000000
Local:           +0.489841
SIC:             +0.000000
--------------------------
Free energy:    -33.918525
Extrapolated:   -33.918525

 Band  Eigenvalues  Occupancy
    0    -21.80354    2.00000
    1    -21.23455    2.00000
    2    -20.92448    2.00000
    3    -11.48462    2.00000
    4    -10.67268    2.00000
    5    -10.14875    2.00000
    6    -10.01117    2.00000
    7     -9.80288    2.00000
    8     -9.25717    2.00000
    9     -8.11359    2.00000
   10     -6.61824    2.00000
   11     -5.39756    2.00000
   12     -2.09759    0.00000
   13     -1.91670    0.00000
   14     -0.71597    0.00000
   15     -0.38233    0.00000
   16      0.04829    0.00000
   17      0.31369    0.00000
   18      0.41525    0.00000

Fermi level: -3.74758

Gap: 3.300 eV
Transition (v -> c):
  (s=0, k=0, n=11, [0.00, 0.00, 0.00]) -> (s=0, k=0, n=12, [0.00, 0.00, 0.00])
No difference between direct/indirect transitions

Forces in eV/Ang:
  0 Al   -0.34030    0.00000   -1.11329
  1 C     0.17210    0.00000  -11.84908
  2 H    10.54433    0.00000    4.75157
  3 H    -5.32535    9.10834    4.60359
  4 H    -5.32535   -9.10834    4.60359
  5 C    -1.61916    0.00000   -7.48938
  6 H     6.61865    0.00000    2.51819
  7 H    -0.89156    7.35267    2.27751
  8 H    -0.89156   -7.35267    2.27751
  9 C    -5.26350    0.00000  -14.40058
 10 H    10.07899    0.00000    9.06876
 11 H    -3.84223    6.04936    2.43383
 12 H    -3.84223   -6.04936    2.43383

System changes: positions 

Initializing position-dependent things.

Density initialized from wave functions
         .---------------------------------------.  
        /|                                       |  
       / |                                       |  
      /  |                                       |  
     /   |                                       |  
    /    |                                       |  
   /     |                                       |  
  /      |                                       |  
 *       |                                       |  
 |       |                                       |  
 |       |                                       |  
 |       |              H  H                     |  
 |       |             H C                       |  
 |       |                                       |  
 |       |               Al                      |  
 |       |         HH H     HH H                 |  
 |       |          C        C                   |  
 |       |                                       |  
 |       |                                       |  
 |       .---------------------------------------.  
 |      /                                       /   
 |     /                                       /    
 |    /                                       /     
 |   /                                       /      
 |  /                                       /       
 | /                                       /        
 |/                                       /         
 *---------------------------------------*          

Positions:
   0 Al     8.218577    6.476314    7.010582    ( 0.0000,  0.0000,  0.0000)
   1 C      8.009996    6.476314    8.825667    ( 0.0000,  0.0000,  0.0000)
   2 H      8.828960    6.476314    9.431478    ( 0.0000,  0.0000,  0.0000)
   3 H      7.591310    7.184156    9.428336    ( 0.0000,  0.0000,  0.0000)
   4 H      7.591310    5.768472    9.428336    ( 0.0000,  0.0000,  0.0000)
   5 C      9.678446    6.476314    5.708819    ( 0.0000,  0.0000,  0.0000)
   6 H     10.453172    6.476314    6.408888    ( 0.0000,  0.0000,  0.0000)
   7 H      9.458452    7.232876    6.436132    ( 0.0000,  0.0000,  0.0000)
   8 H      9.458452    5.719752    6.436132    ( 0.0000,  0.0000,  0.0000)
   9 C      6.148310    6.476314    5.562867    ( 0.0000,  0.0000,  0.0000)
  10 H      6.862563    6.476314    6.467814    ( 0.0000,  0.0000,  0.0000)
  11 H      5.883526    7.130828    6.412173    ( 0.0000,  0.0000,  0.0000)
  12 H      5.883526    5.821800    6.412173    ( 0.0000,  0.0000,  0.0000)

Unit cell:
           periodic     x           y           z      points  spacing
  1. axis:    no    16.285000    0.000000    0.000000    54     0.3016
  2. axis:    no     0.000000   12.952628    0.000000    45     0.2878
  3. axis:    no     0.000000    0.000000   15.330000    50     0.3066

  Lengths:  16.285000  12.952628  15.330000
  Angles:   90.000000  90.000000  90.000000

Effective grid spacing dv^(1/3) = 0.2986

     iter     time        total  log10-change:
                         energy   eigst   dens
iter:   1 19:13:16   -41.284767   -0.30
iter:   2 19:13:17   -41.033170   -1.84  -1.04
iter:   3 19:13:17   -40.030486   -0.92  -1.07
iter:   4 19:13:18   -39.966810   -2.56  -1.45
iter:   5 19:13:19   -39.997467   -1.96  -1.54
iter:   6 19:13:20   -39.909921   -2.36  -1.57
iter:   7 19:13:20   -39.909722   -2.96  -1.87
iter:   8 19:13:21   -39.909596c  -3.33  -2.15
iter:   9 19:13:22   -39.907206c  -3.74  -2.30
iter:  10 19:13:23   -39.907200c  -4.55  -2.49
iter:  11 19:13:23   -39.907425c  -4.26  -2.50
iter:  12 19:13:24   -39.907252c  -4.64  -2.75
iter:  13 19:13:25   -39.907313c  -4.75  -2.98
iter:  14 19:13:26   -39.907257c  -5.28  -3.01
iter:  15 19:13:26   -39.907255c  -6.05  -3.23
iter:  16 19:13:27   -39.907240c  -6.20  -3.25
iter:  17 19:13:28   -39.907235c  -6.40  -3.35
iter:  18 19:13:29   -39.907225c  -6.19  -3.40
iter:  19 19:13:30   -39.907221c  -6.49  -3.61
iter:  20 19:13:30   -39.907222c  -6.82  -3.84
iter:  21 19:13:31   -39.907221c  -7.82c -3.83
iter:  22 19:13:32   -39.907221c  -7.74c -3.85
iter:  23 19:13:32   -39.907221c  -7.57c -3.88
iter:  24 19:13:30   -39.907222c  -6.98  -3.92
iter:  25 19:13:31   -39.907222c  -7.41c -3.98
iter:  26 19:13:32   -39.907222c  -8.04c -4.12c

Converged after 26 iterations.

Dipole moment: (0.520811, -0.000000, 1.123239) |e|*Ang

Energy contributions relative to reference atoms: (reference = -9798.719071)

Kinetic:        +61.305332
Potential:      -43.850796
External:        +0.000000
XC:             -57.807550
Entropy (-ST):   +0.000000
Local:           +0.445792
SIC:             +0.000000
--------------------------
Free energy:    -39.907222
Extrapolated:   -39.907222

 Band  Eigenvalues  Occupancy
    0    -21.30945    2.00000
    1    -19.33092    2.00000
    2    -19.01591    2.00000
    3    -11.34077    2.00000
    4    -10.99626    2.00000
    5     -9.76035    2.00000
    6     -9.58852    2.00000
    7     -9.35398    2.00000
    8     -7.99840    2.00000
    9     -7.31326    2.00000
   10     -6.90994    2.00000
   11     -5.90365    2.00000
   12     -2.00928    0.00000
   13     -1.87083    0.00000
   14     -0.88793    0.00000
   15     -0.29824    0.00000
   16      0.03253    0.00000
   17      0.20646    0.00000
   18      0.39749    0.00000

Fermi level: -3.95646

Gap: 3.894 eV
Transition (v -> c):
  (s=0, k=0, n=11, [0.00, 0.00, 0.00]) -> (s=0, k=0, n=12, [0.00, 0.00, 0.00])
No difference between direct/indirect transitions

Forces in eV/Ang:
  0 Al   -1.92920    0.00000   -0.42588
  1 C     0.22004    0.00000   -0.47464
  2 H     4.42972    0.00000    1.14759
  3 H    -2.21983    3.83765    0.74963
  4 H    -2.21983   -3.83765    0.74963
  5 C    -0.46365    0.00000   -3.84338
  6 H     5.08275    0.00000    0.82626
  7 H    -0.04435    4.85683    0.86158
  8 H    -0.04435   -4.85683    0.86158
  9 C     0.66737    0.00000   -1.49041
 10 H     1.47386    0.00000    0.41169
 11 H    -2.49314    3.58079    0.32910
 12 H    -2.49314   -3.58079    0.32910

System changes: positions 

Initializing position-dependent things.

Density initialized from wave functions
         .---------------------------------------.  
        /|                                       |  
       / |                                       |  
      /  |                                       |  
     /   |                                       |  
    /    |                                       |  
   /     |                                       |  
  /      |                                       |  
 *       |                                       |  
 |       |                                       |  
 |       |                                       |  
 |       |              H  H                     |  
 |       |             H C                       |  
 |       |                                       |  
 |       |               Al  H                   |  
 |       |          H H        H                 |  
 |       |         HC       HC                   |  
 |       |                                       |  
 |       |                                       |  
 |       .---------------------------------------.  
 |      /                                       /   
 |     /                                       /    
 |    /                                       /     
 |   /                                       /      
 |  /                                       /       
 | /                                       /        
 |/                                       /         
 *---------------------------------------*          

Positions:
   0 Al     8.240279    6.476314    7.000501    ( 0.0000,  0.0000,  0.0000)
   1 C      8.016003    6.476314    8.897157    ( 0.0000,  0.0000,  0.0000)
   2 H      8.934563    6.476314    9.445493    ( 0.0000,  0.0000,  0.0000)
   3 H      7.537800    7.273879    9.432432    ( 0.0000,  0.0000,  0.0000)
   4 H      7.537800    5.678749    9.432432    ( 0.0000,  0.0000,  0.0000)
   5 C      9.653298    6.476314    5.683267    ( 0.0000,  0.0000,  0.0000)
   6 H     10.527539    6.476314    6.401589    ( 0.0000,  0.0000,  0.0000)
   7 H      9.503184    7.351127    6.437237    ( 0.0000,  0.0000,  0.0000)
   8 H      9.503184    5.601501    6.437237    ( 0.0000,  0.0000,  0.0000)
   9 C      6.100578    6.476314    5.518686    ( 0.0000,  0.0000,  0.0000)
  10 H      6.838530    6.476314    6.492451    ( 0.0000,  0.0000,  0.0000)
  11 H      5.836528    7.188626    6.395695    ( 0.0000,  0.0000,  0.0000)
  12 H      5.836528    5.764002    6.395695    ( 0.0000,  0.0000,  0.0000)

Unit cell:
           periodic     x           y           z      points  spacing
  1. axis:    no    16.285000    0.000000    0.000000    54     0.3016
  2. axis:    no     0.000000   12.952628    0.000000    45     0.2878
  3. axis:    no     0.000000    0.000000   15.330000    50     0.3066

  Lengths:  16.285000  12.952628  15.330000
  Angles:   90.000000  90.000000  90.000000

Effective grid spacing dv^(1/3) = 0.2986

     iter     time        total  log10-change:
                         energy   eigst   dens
iter:   1 19:13:33   -42.785515   -0.88
iter:   2 19:13:34   -42.740772   -2.35  -1.31
iter:   3 19:13:36   -42.586267   -1.52  -1.34
iter:   4 19:13:36   -42.550872   -3.12  -1.71
iter:   5 19:13:37   -42.541877   -2.81  -1.79
iter:   6 19:13:38   -42.535444   -3.31  -1.93
iter:   7 19:13:39   -42.534611c  -3.95  -2.21
iter:   8 19:13:39   -42.534467c  -3.90  -2.55
iter:   9 19:13:40   -42.534344c  -5.41  -2.81
iter:  10 19:13:41   -42.534336c  -5.96  -2.86
iter:  11 19:13:42   -42.534484c  -4.84  -2.88
iter:  12 19:13:43   -42.534348c  -4.88  -2.92
iter:  13 19:13:43   -42.534344c  -5.74  -3.35
iter:  14 19:13:44   -42.534342c  -6.75  -3.43
iter:  15 19:13:45   -42.534349c  -6.14  -3.47
iter:  16 19:13:45   -42.534345c  -6.42  -3.65
iter:  17 19:13:46   -42.534345c  -7.12  -4.07c
iter:  18 19:13:47   -42.534345c  -7.39  -4.16c
iter:  19 19:13:48   -42.534345c  -7.32  -4.21c
iter:  20 19:13:49   -42.534345c  -8.18c -4.33c

Converged after 20 iterations.

Dipole moment: (0.591065, -0.000000, 0.962117) |e|*Ang

Energy contributions relative to reference atoms: (reference = -9798.719071)

Kinetic:        +38.301007
Potential:      -29.665100
External:        +0.000000
XC:             -51.622943
Entropy (-ST):   +0.000000
Local:           +0.452691
SIC:             +0.000000
--------------------------
Free energy:    -42.534345
Extrapolated:   -42.534345

 Band  Eigenvalues  Occupancy
    0    -20.28631    2.00000
    1    -18.32794    2.00000
    2    -18.04852    2.00000
    3    -11.45095    2.00000
    4    -10.50365    2.00000
    5     -9.70593    2.00000
    6     -9.51913    2.00000
    7     -8.88520    2.00000
    8     -7.74677    2.00000
    9     -7.25656    2.00000
   10     -6.95575    2.00000
   11     -5.82491    2.00000
   12     -2.07890    0.00000
   13     -1.92862    0.00000
   14     -1.01488    0.00000
   15     -0.27076    0.00000
   16     -0.00574    0.00000
   17      0.11062    0.00000
   18      0.33874    0.00000

Fermi level: -3.95190

Gap: 3.746 eV
Transition (v -> c):
  (s=0, k=0, n=11, [0.00, 0.00, 0.00]) -> (s=0, k=0, n=12, [0.00, 0.00, 0.00])
No difference between direct/indirect transitions

Forces in eV/Ang:
  0 Al   -1.86233    0.00000    0.77088
  1 C     0.20335    0.00000    0.57799
  2 H     1.97527    0.00000    0.39102
  3 H    -0.93815    1.68306   -0.07473
  4 H    -0.93815   -1.68306   -0.07473
  5 C     1.17205    0.00000   -1.25363
  6 H     2.72499    0.00000   -0.54268
  7 H     0.00039    2.10521    0.18291
  8 H     0.00039   -2.10521    0.18291
  9 C     0.70253    0.00000    0.59733
 10 H     0.71973    0.00000    0.00724
 11 H    -1.89638    2.34662   -0.39502
 12 H    -1.89638   -2.34662   -0.39502

System changes: positions 

Initializing position-dependent things.

Density initialized from wave functions
         .---------------------------------------.  
        /|                                       |  
       / |                                       |  
      /  |                                       |  
     /   |                                       |  
    /    |                                       |  
   /     |                                       |  
  /      |                                       |  
 *       |                                       |  
 |       |                                       |  
 |       |                                       |  
 |       |              H  H                     |  
 |       |             H C                       |  
 |       |                                       |  
 |       |               Al  H                   |  
 |       |          H H        H                 |  
 |       |         HC       HC                   |  
 |       |                                       |  
 |       |                                       |  
 |       .---------------------------------------.  
 |      /                                       /   
 |     /                                       /    
 |    /                                       /     
 |   /                                       /      
 |  /                                       /       
 | /                                       /        
 |/                                       /         
 *---------------------------------------*          

Positions:
   0 Al     8.233838    6.476314    7.016880    ( 0.0000,  0.0000,  0.0000)
   1 C      8.024422    6.476314    8.976624    ( 0.0000,  0.0000,  0.0000)
   2 H      9.037273    6.476314    9.457871    ( 0.0000,  0.0000,  0.0000)
   3 H      7.487166    7.360453    9.427905    ( 0.0000,  0.0000,  0.0000)
   4 H      7.487166    5.592175    9.427905    ( 0.0000,  0.0000,  0.0000)
   5 C      9.666630    6.476314    5.666200    ( 0.0000,  0.0000,  0.0000)
   6 H     10.612323    6.476314    6.372325    ( 0.0000,  0.0000,  0.0000)
   7 H      9.543604    7.462543    6.434828    ( 0.0000,  0.0000,  0.0000)
   8 H      9.543604    5.490085    6.434828    ( 0.0000,  0.0000,  0.0000)
   9 C      6.065683    6.476314    5.503334    ( 0.0000,  0.0000,  0.0000)
  10 H      6.823229    6.476314    6.514621    ( 0.0000,  0.0000,  0.0000)
  11 H      5.769862    7.265767    6.367979    ( 0.0000,  0.0000,  0.0000)
  12 H      5.769862    5.686861    6.367979    ( 0.0000,  0.0000,  0.0000)

Unit cell:
           periodic     x           y           z      points  spacing
  1. axis:    no    16.285000    0.000000    0.000000    54     0.3016
  2. axis:    no     0.000000   12.952628    0.000000    45     0.2878
  3. axis:    no     0.000000    0.000000   15.330000    50     0.3066

  Lengths:  16.285000  12.952628  15.330000
  Angles:   90.000000  90.000000  90.000000

Effective grid spacing dv^(1/3) = 0.2986

     iter     time        total  log10-change:
                         energy   eigst   dens
iter:   1 19:13:50   -44.094906   -1.00
iter:   2 19:13:51   -44.045467   -2.47  -1.34
iter:   3 19:13:52   -43.884823   -1.58  -1.37
iter:   4 19:13:53   -43.863660   -3.42  -1.74
iter:   5 19:13:53   -43.855027   -2.80  -1.80
iter:   6 19:13:54   -43.847881   -3.30  -1.95
iter:   7 19:13:55   -43.846995c  -4.17  -2.24
iter:   8 19:13:55   -43.846627c  -3.83  -2.49
iter:   9 19:13:56   -43.846550c  -5.61  -2.82
iter:  10 19:13:57   -43.846610c  -4.72  -2.86
iter:  11 19:13:58   -43.846577c  -4.69  -2.90
iter:  12 19:13:58   -43.846561c  -6.44  -3.27
iter:  13 19:13:59   -43.846557c  -6.56  -3.35
iter:  14 19:14:00   -43.846565c  -6.29  -3.39
iter:  15 19:14:01   -43.846555c  -6.07  -3.36
iter:  16 19:14:01   -43.846557c  -6.08  -3.46
iter:  17 19:14:02   -43.846558c  -6.02  -3.47
iter:  18 19:14:00   -43.846557c  -6.35  -3.87
iter:  19 19:14:01   -43.846557c  -7.78c -4.09c

Converged after 19 iterations.

Dipole moment: (0.608144, -0.000000, 0.859609) |e|*Ang

Energy contributions relative to reference atoms: (reference = -9798.719071)

Kinetic:        +19.519141
Potential:      -17.549238
External:        +0.000000
XC:             -46.300155
Entropy (-ST):   +0.000000
Local:           +0.483696
SIC:             +0.000000
--------------------------
Free energy:    -43.846557
Extrapolated:   -43.846557

 Band  Eigenvalues  Occupancy
    0    -19.26210    2.00000
    1    -17.64061    2.00000
    2    -17.30187    2.00000
    3    -11.15913    2.00000
    4    -10.23858    2.00000
    5     -9.71337    2.00000
    6     -9.51352    2.00000
    7     -8.55148    2.00000
    8     -7.66652    2.00000
    9     -7.38942    2.00000
   10     -6.77917    2.00000
   11     -5.65573    2.00000
   12     -2.19962    0.00000
   13     -2.01803    0.00000
   14     -1.18489    0.00000
   15     -0.32872    0.00000
   16     -0.09278    0.00000
   17      0.03361    0.00000
   18      0.27265    0.00000

Fermi level: -3.92767

Gap: 3.456 eV
Transition (v -> c):
  (s=0, k=0, n=11, [0.00, 0.00, 0.00]) -> (s=0, k=0, n=12, [0.00, 0.00, 0.00])
No difference between direct/indirect transitions

Forces in eV/Ang:
  0 Al   -0.56733    0.00000    0.95688
  1 C     0.09221    0.00000    0.62332
  2 H     0.29629    0.00000    0.10912
  3 H    -0.03900    0.17216   -0.31456
  4 H    -0.03900   -0.17216   -0.31456
  5 C     1.43689    0.00000   -0.02563
  6 H     1.55927    0.00000   -0.90187
  7 H    -0.30188    0.21796   -0.01836
  8 H    -0.30188   -0.21796   -0.01836
  9 C     0.62588    0.00000    1.75908
 10 H    -0.17082    0.00000   -0.27529
 11 H    -1.29984    1.00732   -0.82464
 12 H    -1.29984   -1.00732   -0.82464

System changes: positions 

Initializing position-dependent things.

Density initialized from wave functions
         .---------------------------------------.  
        /|                                       |  
       / |                                       |  
      /  |                                       |  
     /   |                                       |  
    /    |                                       |  
   /     |                                       |  
  /      |                                       |  
 *       |                                       |  
 |       |                                       |  
 |       |                                       |  
 |       |              H  H                     |  
 |       |             H C                       |  
 |       |                                       |  
 |       |               Al  H                   |  
 |       |          H H        H                 |  
 |       |         HC       HC                   |  
 |       |                                       |  
 |       |                                       |  
 |       .---------------------------------------.  
 |      /                                       /   
 |     /                                       /    
 |    /                                       /     
 |   /                                       /      
 |  /                                       /       
 | /                                       /        
 |/                                       /         
 *---------------------------------------*          

Positions:
   0 Al     8.225487    6.476314    7.039629    ( 0.0000,  0.0000,  0.0000)
   1 C      8.029461    6.476314    9.017756    ( 0.0000,  0.0000,  0.0000)
   2 H      9.088588    6.476314    9.466859    ( 0.0000,  0.0000,  0.0000)
   3 H      7.463879    7.402158    9.422106    ( 0.0000,  0.0000,  0.0000)
   4 H      7.463879    5.550470    9.422106    ( 0.0000,  0.0000,  0.0000)
   5 C      9.696285    6.476314    5.660731    ( 0.0000,  0.0000,  0.0000)
   6 H     10.676176    6.476314    6.343379    ( 0.0000,  0.0000,  0.0000)
   7 H      9.555991    7.513277    6.433045    ( 0.0000,  0.0000,  0.0000)
   8 H      9.555991    5.439351    6.433045    ( 0.0000,  0.0000,  0.0000)
   9 C      6.055950    6.476314    5.523638    ( 0.0000,  0.0000,  0.0000)
  10 H      6.816093    6.476314    6.524918    ( 0.0000,  0.0000,  0.0000)
  11 H      5.718171    7.315130    6.340277    ( 0.0000,  0.0000,  0.0000)
  12 H      5.718171    5.637498    6.340277    ( 0.0000,  0.0000,  0.0000)

Unit cell:
           periodic     x           y           z      points  spacing
  1. axis:    no    16.285000    0.000000    0.000000    54     0.3016
  2. axis:    no     0.000000   12.952628    0.000000    45     0.2878
  3. axis:    no     0.000000    0.000000   15.330000    50     0.3066

  Lengths:  16.285000  12.952628  15.330000
  Angles:   90.000000  90.000000  90.000000

Effective grid spacing dv^(1/3) = 0.2986

     iter     time        total  log10-change:
                         energy   eigst   dens
iter:   1 19:14:02   -44.345529   -1.55
iter:   2 19:14:03   -44.328187   -3.02  -1.60
iter:   3 19:14:04   -44.270408   -2.10  -1.63
iter:   4 19:14:05   -44.265324   -3.95  -1.97
iter:   5 19:14:05   -44.263288c  -3.11  -2.01
iter:   6 19:14:06   -44.259389c  -3.77  -2.15
iter:   7 19:14:07   -44.258838c  -4.40  -2.43
