
  ___ ___ ___ _ _ _  
 |   |   |_  | | | | 
 | | | | | . | | | | 
 |__ |  _|___|_____|  25.1.0
 |___|_|             

User:   dreece23@Nugtop
Date:   Sun Jul 13 19:11:44 2025
Arch:   x86_64
Pid:    622807
CWD:    /home/dreece23/MLD_ASE_GPAW/test_results
Python: 3.10.18
gpaw:   /home/dreece23/miniconda3/envs/mld_modeling/lib/python3.10/site-packages/gpaw
_gpaw:  /home/dreece23/miniconda3/envs/mld_modeling/lib/python3.10/site-packages/
        _gpaw.cpython-310-x86_64-linux-gnu.so
ase:    /home/dreece23/miniconda3/envs/mld_modeling/lib/python3.10/site-packages/ase (version 3.25.0)
numpy:  /home/dreece23/miniconda3/envs/mld_modeling/lib/python3.10/site-packages/numpy (version 2.0.1)
scipy:  /home/dreece23/miniconda3/envs/mld_modeling/lib/python3.10/site-packages/scipy (version 1.15.3)
libxc:  5.2.3
units:  Angstrom and eV
cores: 1
OpenMP: False
OMP_NUM_THREADS: 1

Input parameters:
  convergence: {energy: 0.01}
  kpts: [2 2 1]
  maxiter: 30
  mode: {ecut: 150.0,
         name: pw}
  xc: PBE

System changes: positions, numbers, cell, pbc, initial_charges, initial_magmoms 

Initialize ...

species:
  Si:
    name: Silicon
    id: ee77bee481871cc2cb65ac61239ccafa
    Z: 14.0
    valence: 4
    core: 10
    charge: 0.0
    file: /home/dreece23/.local/share/gpaw/gpaw-setups-24.11.0/Si.PBE.gz
    compensation charges: {type: gauss,
                           rc: 0.33,
                           lmax: 2}
    cutoffs: {filter: 1.86,
              core: 2.06}
    projectors:
      #              energy  rcut
      - 3s(2.00)   -10.812   1.058
      - 3p(2.00)    -4.081   1.058
      -  s          16.399   1.058
      -  p          23.130   1.058
      -  d           0.000   1.058
  
    # Using partial waves for Si as LCAO basis

Reference energy: -126181.508004  # eV

Spin-paired calculation

Convergence criteria:
 Maximum [total energy] change in last 3 cyles: 0.01 eV / valence electron
 Maximum integral of absolute [dens]ity change: 0.0001 electrons / valence electron
 Maximum integral of absolute [eigenst]ate change: 4e-08 eV^2 / valence electron
 Maximum number of scf [iter]ations: 30
 (Square brackets indicate name in SCF output, whereas a 'c' in
 the SCF output indicates the quantity has converged.)

Symmetries present (total): 4

  ( 1  0  0)  ( 0  1  0)  ( 0 -1  0)  (-1  0  0)
  ( 0  1  0)  ( 1  0  0)  (-1  0  0)  ( 0 -1  0)
  ( 0  0  1)  ( 0  0  1)  ( 0  0  1)  ( 0  0  1)

4 k-points: 2 x 2 x 1 Monkhorst-Pack grid
2 k-points in the irreducible part of the Brillouin zone
       k-points in crystal coordinates                weights
   0:     0.25000000   -0.25000000    0.00000000          2/4
   1:     0.25000000    0.25000000    0.00000000          2/4

Wave functions: Plane wave expansion
  Cutoff energy: 150.000 eV
  Number of coefficients (min, max): 3158, 3158
  Pulay-stress correction: 0.000000 eV/Ang^3 (de/decut=0.000000)
  Using Numpy's FFT
  ScaLapack parameters: grid=1x1, blocksize=None
  Wavefunction extrapolation:
    Improved wavefunction reuse through dual PAW basis 

Occupation numbers: Fermi-Dirac:
  width: 0.1000  # eV
 

Eigensolver
   Davidson(niter=2) 

Densities:
  Coarse grid: 16*16*75 grid
  Fine grid: 32*32*150 grid
  Total Charge: 0.000000 

Density mixing:
  Method: separate
  Backend: pulay
  Linear mixing parameter: 0.05
  old densities: 5
  Damping of long wavelength oscillations: 50 

Hamiltonian:
  XC and Coulomb potentials evaluated on a 32*32*150 grid
  Using the PBE Exchange-Correlation functional
  External potential:
    NoExternalPotential
 

XC parameters: PBE with 2 nearest neighbor stencil

Memory estimate:
  Process memory now: 202.20 MiB
  Calculator: 19.67 MiB
    Density: 8.60 MiB
      Arrays: 3.81 MiB
      Localized functions: 3.32 MiB
      Mixer: 1.46 MiB
    Hamiltonian: 2.56 MiB
      Arrays: 2.49 MiB
      XC: 0.00 MiB
      Poisson: 0.00 MiB
      vbar: 0.07 MiB
    Wavefunctions: 8.52 MiB
      Arrays psit_nG: 4.14 MiB
      Eigensolver: 2.60 MiB
      Projections: 0.27 MiB
      Projectors: 0.67 MiB
      PW-descriptor: 0.83 MiB

Total number of cores used: 1

Number of atoms: 16
Number of atomic orbitals: 64
Number of bands in calculation: 43
Number of valence electrons: 64
Bands to converge: occupied

... initialized

Initializing position-dependent things.

Density initialized from atomic densities
Creating initial wave functions:
  43 bands from LCAO basis set

    .------------.  
   /|            |  
  / |            |  
 *  |            |  
 |  |            |  
 |  |            |  
 |  |            |  
 |  |            |  
 |  |            |  
 |  |            |  
 |  | Si         |  
 |  |            |  
 |  |      Si    |  
 | Si            |  
 |  |  Si    Si  |  
 |  |Si          |  
 |  |    Si      |  
 |  | Si         |  
 Si |            |  
 | Si      Si    |  
 |  |        Si  |  
 |  |  Si        |  
 |  |Si          |  
 |  |    Si      |  
 Si |            |  
 |  |            |  
 |  |            |  
 |  |            |  
 |  |            |  
 |  |            |  
 |  |            |  
 |  .------------.  
 | /            /   
 |/            /    
 *------------*     

Positions:
   0 Si     0.000000    0.000000    8.000000    ( 0.0000,  0.0000,  0.0000)
   1 Si     1.357500    1.357500    9.357500    ( 0.0000,  0.0000,  0.0000)
   2 Si     2.715000    2.715000    8.000000    ( 0.0000,  0.0000,  0.0000)
   3 Si     4.072500    4.072500    9.357500    ( 0.0000,  0.0000,  0.0000)
   4 Si     0.000000    2.715000   10.715000    ( 0.0000,  0.0000,  0.0000)
   5 Si     1.357500    4.072500   12.072500    ( 0.0000,  0.0000,  0.0000)
   6 Si     2.715000    0.000000   10.715000    ( 0.0000,  0.0000,  0.0000)
   7 Si     4.072500    1.357500   12.072500    ( 0.0000,  0.0000,  0.0000)
   8 Si     0.000000    0.000000   13.430000    ( 0.0000,  0.0000,  0.0000)
   9 Si     1.357500    1.357500   14.787500    ( 0.0000,  0.0000,  0.0000)
  10 Si     2.715000    2.715000   13.430000    ( 0.0000,  0.0000,  0.0000)
  11 Si     4.072500    4.072500   14.787500    ( 0.0000,  0.0000,  0.0000)
  12 Si     0.000000    2.715000   16.145000    ( 0.0000,  0.0000,  0.0000)
  13 Si     1.357500    4.072500   17.502500    ( 0.0000,  0.0000,  0.0000)
  14 Si     2.715000    0.000000   16.145000    ( 0.0000,  0.0000,  0.0000)
  15 Si     4.072500    1.357500   17.502500    ( 0.0000,  0.0000,  0.0000)

Unit cell:
           periodic     x           y           z      points  spacing
  1. axis:    yes    5.430000    0.000000    0.000000    16     0.3394
  2. axis:    yes    0.000000    5.430000    0.000000    16     0.3394
  3. axis:    no     0.000000    0.000000   25.502500    75     0.3400

  Lengths:   5.430000   5.430000  25.502500
  Angles:   90.000000  90.000000  90.000000

Effective grid spacing dv^(1/3) = 0.3396

     iter     time        total  log10-change:
                         energy   eigst   dens
iter:   1 19:11:45   -78.606070
iter:   2 19:11:45   -78.595789   -1.46  -0.84
iter:   3 19:11:46   -78.322786c  -1.61  -0.85
iter:   4 19:11:47   -77.930198   -2.11  -1.02
iter:   5 19:11:47   -77.934868c  -2.05  -1.08
iter:   6 19:11:48   -77.946363c  -2.44  -1.55
iter:   7 19:11:49   -77.863798c  -2.40  -1.62
iter:   8 19:11:50   -77.848059c  -3.34  -1.90
iter:   9 19:11:51   -77.854226c  -2.81  -1.95
iter:  10 19:11:51   -77.835566c  -3.38  -2.11
iter:  11 19:11:52   -77.835513c  -4.30  -2.61
iter:  12 19:11:53   -77.835761c  -4.57  -2.67
iter:  13 19:11:53   -77.835565c  -4.28  -2.70
iter:  14 19:11:54   -77.835255c  -5.26  -2.77
iter:  15 19:11:55   -77.835636c  -4.62  -2.93
iter:  16 19:11:55   -77.835057c  -4.78  -2.91
iter:  17 19:11:56   -77.835016c  -5.96  -3.55
iter:  18 19:11:57   -77.834992c  -6.63  -3.66
iter:  19 19:11:57   -77.834986c  -7.32  -3.73
iter:  20 19:11:58   -77.834993c  -7.33  -3.78
iter:  21 19:11:59   -77.834983c  -7.62c -3.77
iter:  22 19:11:59   -77.834977c  -7.81c -3.85
iter:  23 19:12:00   -77.834979c  -7.43c -3.91
iter:  24 19:12:01   -77.834972c  -7.69c -4.11c

Converged after 24 iterations.

Dipole moment: (-0.000000, -0.000000, -0.000146) |e|*Ang

Energy contributions relative to reference atoms: (reference = -126181.508004)

Kinetic:       +105.908729
Potential:      -95.140033
External:        +0.000000
XC:             -88.308564
Entropy (-ST):   -0.287933
Local:           -0.151137
SIC:             +0.000000
--------------------------
Free energy:    -77.978938
Extrapolated:   -77.834972

Showing all kpts
 Kpt  Band  Eigenvalues  Occupancy
  0    30     -1.14484    1.85866
  0    31     -0.74647    0.39336
  0    32     -0.39634    0.01466
  0    33     -0.34347    0.00867

  1    30     -1.30738    1.97051
  1    31     -1.00197    1.51824
  1    32     -1.00170    1.51725
  1    33     -0.84403    0.78749


Fermi level: -0.88719

No gap
No difference between direct/indirect transitions
Timing:                              incl.     excl.
-----------------------------------------------------------
Hamiltonian:                         0.244     0.001   0.0% |
 Atomic:                             0.191     0.001   0.0% |
  XC Correction:                     0.190     0.190   1.1% |
 Calculate atomic Hamiltonians:      0.023     0.023   0.1% |
 Communicate:                        0.000     0.000   0.0% |
 Initialize Hamiltonian:             0.000     0.000   0.0% |
 Poisson:                            0.000     0.000   0.0% |
 XC 3D grid:                         0.029     0.029   0.2% |
LCAO initialization:                 0.352     0.004   0.0% |
 LCAO eigensolver:                   0.043     0.000   0.0% |
  Calculate projections:             0.000     0.000   0.0% |
  DenseAtomicCorrection:             0.001     0.001   0.0% |
  Distribute overlap matrix:         0.000     0.000   0.0% |
  Orbital Layouts:                   0.010     0.010   0.1% |
  Potential matrix:                  0.029     0.029   0.2% |
  Sum over cells:                    0.002     0.002   0.0% |
 LCAO to grid:                       0.212     0.212   1.2% |
 Set positions (LCAO WFS):           0.092     0.021   0.1% |
  Basic WFS set positions:           0.001     0.001   0.0% |
  Basis functions set positions:     0.000     0.000   0.0% |
  P tci:                             0.040     0.040   0.2% |
  ST tci:                            0.027     0.027   0.2% |
  mktci:                             0.004     0.004   0.0% |
PWDescriptor:                        0.001     0.001   0.0% |
SCF-cycle:                          16.866     0.021   0.1% |
 Davidson:                           9.512     1.431   8.1% |--|
  Apply H:                           1.396     1.356   7.7% |--|
   HMM T:                            0.040     0.040   0.2% |
  Subspace diag:                     1.619     0.006   0.0% |
   calc_h_matrix:                    1.246     0.088   0.5% |
    Apply H:                         1.159     1.125   6.4% |--|
     HMM T:                          0.033     0.033   0.2% |
   diagonalize:                      0.027     0.027   0.2% |
   rotate_psi:                       0.340     0.340   1.9% ||
  calc. matrices:                    3.350     0.540   3.1% ||
   Apply H:                          2.810     2.728  15.5% |-----|
    HMM T:                           0.082     0.082   0.5% |
  diagonalize:                       1.560     1.560   8.9% |---|
  rotate_psi:                        0.157     0.157   0.9% |
 Density:                            1.551     0.001   0.0% |
  Atomic density matrices:           0.043     0.043   0.2% |
  Mix:                               0.751     0.751   4.3% |-|
  Multipole moments:                 0.007     0.007   0.0% |
  Pseudo density:                    0.750     0.725   4.1% |-|
   Symmetrize density:               0.024     0.024   0.1% |
 Hamiltonian:                        5.762     0.017   0.1% |
  Atomic:                            4.466     0.021   0.1% |
   XC Correction:                    4.445     4.445  25.3% |---------|
  Calculate atomic Hamiltonians:     0.607     0.607   3.5% ||
  Communicate:                       0.000     0.000   0.0% |
  Poisson:                           0.008     0.008   0.0% |
  XC 3D grid:                        0.663     0.663   3.8% |-|
 Orthonormalize:                     0.019     0.000   0.0% |
  calc_s_matrix:                     0.003     0.003   0.0% |
  inverse-cholesky:                  0.001     0.001   0.0% |
  projections:                       0.015     0.015   0.1% |
  rotate_psi_s:                      0.001     0.001   0.0% |
Set symmetry:                        0.001     0.001   0.0% |
Other:                               0.133     0.133   0.8% |
-----------------------------------------------------------
Total:                                        17.596 100.0%

Memory usage: 258.05 MiB
Date: Sun Jul 13 19:12:01 2025
